 <VTKFile type="UnstructuredGrid" version="0.1"  byte_order="LittleEndian">
 <UnstructuredGrid>
 <Piece NumberOfPoints="65" NumberOfCells="96">
 <PointData>
 <DataArray type="Float64" Name="u" format="ascii">
   0.0000000000000000     
   0.0000000000000000     
   0.0000000000000000     
   0.0000000000000000     
   0.0000000000000000     
   0.0000000000000000     
   0.0000000000000000     
   0.0000000000000000     
   0.0000000000000000     
   0.0000000000000000     
   0.0000000000000000     
   0.0000000000000000     
   0.0000000000000000     
   0.0000000000000000     
   0.0000000000000000     
   0.0000000000000000     
   0.0000000000000000     
   0.0000000000000000     
   0.0000000000000000     
   0.0000000000000000     
   0.0000000000000000     
   0.0000000000000000     
   0.0000000000000000     
   0.0000000000000000     
   0.0000000000000000     
   0.0000000000000000     
   0.0000000000000000     
   0.0000000000000000     
   0.0000000000000000     
   0.0000000000000000     
   0.0000000000000000     
   0.0000000000000000     
   1.9956921665255023     
   2.6636937145165431     
   1.9956921665254361     
   3.6524083014121067     
   4.8717238819848481     
   3.6524083014128093     
   4.9505505227486655     
   6.6017185890044869     
   4.9505505227501256     
   5.8814085789727235     
   7.8423828264364168     
   5.8814085789734083     
   6.4410343559435939     
   8.5883289701921335     
   6.4410343559435956     
   6.6277332694956188     
   8.8371977639771035     
   6.6277332694946489     
   6.4410343559455754     
   8.5883289701944214     
   6.4410343559433496     
   5.8814085789754520     
   7.8423828264392323     
   5.8814085789718309     
   4.9505505227513638     
   6.6017185890060182     
   4.9505505227459317     
   3.6524083014133644     
   4.8717238819857638     
   3.6524083014092152     
   1.9956921665255611     
   2.6636937145168935     
   1.9956921665234946     
 </DataArray>
 <DataArray type="Float64" Name="uexa" format="ascii">
   0.0000000000000000     
   0.0000000000000000     
   0.0000000000000000     
   0.0000000000000000     
   0.0000000000000000     
   0.0000000000000000     
   0.0000000000000000     
   0.0000000000000000     
   0.0000000000000000     
   0.0000000000000000     
   0.0000000000000000     
   0.0000000000000000     
   0.0000000000000000     
   0.0000000000000000     
   0.0000000000000000     
   0.0000000000000000     
   0.0000000000000000     
   0.0000000000000000     
   0.0000000000000000     
   0.0000000000000000     
   0.0000000000000000     
   0.0000000000000000     
   0.0000000000000000     
   0.0000000000000000     
   0.0000000000000000     
   0.0000000000000000     
   0.0000000000000000     
   0.0000000000000000     
   0.0000000000000000     
   0.0000000000000000     
   0.0000000000000000     
   0.0000000000000000     
   2.0625000000006213     
   2.7499999999984461     
   2.0625000000005733     
   3.7500000000007119     
   4.9999999999975140     
   3.7500000000014455     
   5.0625000000006803     
   6.7499999999972005     
   5.0625000000023528     
   6.0000000000018714     
   7.9999999999977245     
   6.0000000000024478     
   6.5625000000028306     
   8.7499999999986571     
   6.5625000000026912     
   6.7500000000039666     
   9.0000000000000000     
   6.7500000000028439     
   6.5625000000046461     
   8.7500000000008260     
   6.5625000000022906     
   6.0000000000042455     
   8.0000000000002114     
   6.0000000000004459     
   5.0625000000031690     
   6.7499999999981561     
   5.0624999999970361     
   3.7500000000018279     
   4.9999999999983658     
   3.7499999999973936     
   2.0625000000006382     
   2.7499999999989693     
   2.0624999999984590     
 </DataArray>
 <DataArray type="Float64" Name="erreur" format="ascii">
   0.0000000000000000     
   0.0000000000000000     
   0.0000000000000000     
   0.0000000000000000     
   0.0000000000000000     
   0.0000000000000000     
   0.0000000000000000     
   0.0000000000000000     
   0.0000000000000000     
   0.0000000000000000     
   0.0000000000000000     
   0.0000000000000000     
   0.0000000000000000     
   0.0000000000000000     
   0.0000000000000000     
   0.0000000000000000     
   0.0000000000000000     
   0.0000000000000000     
   0.0000000000000000     
   0.0000000000000000     
   0.0000000000000000     
   0.0000000000000000     
   0.0000000000000000     
   0.0000000000000000     
   0.0000000000000000     
   0.0000000000000000     
   0.0000000000000000     
   0.0000000000000000     
   0.0000000000000000     
   0.0000000000000000     
   0.0000000000000000     
   0.0000000000000000     
  -6.6807833475118983E-002
  -8.6306285481903000E-002
  -6.6807833475137191E-002
  -9.7591698588605169E-002
 -0.12827611801266592     
  -9.7591698588636255E-002
 -0.11194947725201487     
 -0.14828141099271352     
 -0.11194947725222715     
 -0.11859142102914788     
 -0.15761717356130767     
 -0.11859142102903952     
 -0.12146564405923677     
 -0.16167102980652359     
 -0.12146564405909555     
 -0.12226673050834780     
 -0.16280223602289645     
 -0.12226673050819503     
 -0.12146564405907068     
 -0.16167102980640458     
 -0.12146564405894100     
 -0.11859142102879350     
 -0.15761717356097904     
 -0.11859142102861497     
 -0.11194947725180526     
 -0.14828141099213799     
 -0.11194947725110449     
  -9.7591698588463505E-002
 -0.12827611801260197     
  -9.7591698588178399E-002
  -6.6807833475077016E-002
  -8.6306285482075751E-002
  -6.6807833474964440E-002
 </DataArray>
 </PointData>
 <Points>
 <DataArray type="Float64" Name="Nodes" NumberOfComponents="3" format="ascii">
   0.0000000000000000        0.0000000000000000        0.0000000000000000     
   6.0000000000000000        0.0000000000000000        0.0000000000000000     
   6.0000000000000000        2.0000000000000000        0.0000000000000000     
   0.0000000000000000        2.0000000000000000        0.0000000000000000     
  0.49999999999799027        0.0000000000000000        0.0000000000000000     
  0.99999999999598055        0.0000000000000000        0.0000000000000000     
   1.4999999999939710        0.0000000000000000        0.0000000000000000     
   1.9999999999930991        0.0000000000000000        0.0000000000000000     
   2.4999999999922271        0.0000000000000000        0.0000000000000000     
   2.9999999999913549        0.0000000000000000        0.0000000000000000     
   3.4999999999923328        0.0000000000000000        0.0000000000000000     
   3.9999999999933111        0.0000000000000000        0.0000000000000000     
   4.4999999999942899        0.0000000000000000        0.0000000000000000     
   4.9999999999961933        0.0000000000000000        0.0000000000000000     
   5.4999999999980966        0.0000000000000000        0.0000000000000000     
   6.0000000000000000       0.49999999999879968        0.0000000000000000     
   6.0000000000000000       0.99999999999804323        0.0000000000000000     
   6.0000000000000000        1.4999999999986751        0.0000000000000000     
   5.5000000000023128        2.0000000000000000        0.0000000000000000     
   5.0000000000046274        2.0000000000000000        0.0000000000000000     
   4.5000000000069393        2.0000000000000000        0.0000000000000000     
   4.0000000000064766        2.0000000000000000        0.0000000000000000     
   3.5000000000060139        2.0000000000000000        0.0000000000000000     
   3.0000000000055520        2.0000000000000000        0.0000000000000000     
   2.5000000000050902        2.0000000000000000        0.0000000000000000     
   2.0000000000046270        2.0000000000000000        0.0000000000000000     
   1.5000000000041640        2.0000000000000000        0.0000000000000000     
   1.0000000000027760        2.0000000000000000        0.0000000000000000     
  0.50000000000138822        2.0000000000000000        0.0000000000000000     
   0.0000000000000000        1.5000000000006939        0.0000000000000000     
   0.0000000000000000        1.0000000000027760        0.0000000000000000     
   0.0000000000000000       0.50000000000208167        0.0000000000000000     
  0.49999999999883982       0.50000000000180811        0.0000000000000000     
  0.49999999999968919        1.0000000000023810        0.0000000000000000     
  0.50000000000053868        1.5000000000005260        0.0000000000000000     
  0.99999999999767952       0.50000000000153466        0.0000000000000000     
  0.99999999999937850        1.0000000000019871        0.0000000000000000     
   1.0000000000010769        1.5000000000003570        0.0000000000000000     
   1.4999999999965190       0.50000000000126121        0.0000000000000000     
   1.4999999999990670        1.0000000000015929        0.0000000000000000     
   1.5000000000016160        1.5000000000001901        0.0000000000000000     
   1.9999999999959810       0.50000000000098754        0.0000000000000000     
   1.9999999999988629        1.0000000000011979        0.0000000000000000     
   2.0000000000017448        1.5000000000000211        0.0000000000000000     
   2.4999999999954419       0.50000000000071421        0.0000000000000000     
   2.4999999999986580        1.0000000000008040        0.0000000000000000     
   2.5000000000018741        1.4999999999998530        0.0000000000000000     
   2.9999999999949050       0.50000000000044076        0.0000000000000000     
   2.9999999999984528        1.0000000000004099        0.0000000000000000     
   3.0000000000020020        1.4999999999996840        0.0000000000000000     
   3.4999999999957541       0.50000000000016709        0.0000000000000000     
   3.4999999999991731        1.0000000000000151        0.0000000000000000     
   3.5000000000025930        1.4999999999995159        0.0000000000000000     
   3.9999999999966018       0.49999999999989359        0.0000000000000000     
   3.9999999999998939       0.99999999999962086        0.0000000000000000     
   4.0000000000031859        1.4999999999993470        0.0000000000000000     
   4.4999999999974518       0.49999999999962019        0.0000000000000000     
   4.5000000000006146       0.99999999999922640        0.0000000000000000     
   4.5000000000037774        1.4999999999991800        0.0000000000000000     
   4.9999999999983018       0.49999999999934669        0.0000000000000000     
   5.0000000000004086       0.99999999999883205        0.0000000000000000     
   5.0000000000025171        1.4999999999990110        0.0000000000000000     
   5.4999999999991500       0.49999999999907307        0.0000000000000000     
   5.5000000000002061       0.99999999999843758        0.0000000000000000     
   5.5000000000012594        1.4999999999988429        0.0000000000000000     
 </DataArray>
 </Points>
 <Cells>
 <DataArray type="Int32" Name="connectivity" format="ascii">
           0           4          31
          31           4          32
          31          32          30
          30          32          33
          30          33          29
          29          33          34
          29          34           3
           3          34          28
           4           5          32
          32           5          35
          32          35          33
          33          35          36
          33          36          34
          34          36          37
          34          37          28
          28          37          27
           5           6          35
          35           6          38
          35          38          36
          36          38          39
          36          39          37
          37          39          40
          37          40          27
          27          40          26
           6           7          38
          38           7          41
          38          41          39
          39          41          42
          39          42          40
          40          42          43
          40          43          26
          26          43          25
           7           8          41
          41           8          44
          41          44          42
          42          44          45
          42          45          43
          43          45          46
          43          46          25
          25          46          24
           8           9          44
          44           9          47
          44          47          45
          45          47          48
          45          48          46
          46          48          49
          46          49          24
          24          49          23
           9          10          47
          47          10          50
          47          50          48
          48          50          51
          48          51          49
          49          51          52
          49          52          23
          23          52          22
          10          11          50
          50          11          53
          50          53          51
          51          53          54
          51          54          52
          52          54          55
          52          55          22
          22          55          21
          11          12          53
          53          12          56
          53          56          54
          54          56          57
          54          57          55
          55          57          58
          55          58          21
          21          58          20
          12          13          56
          56          13          59
          56          59          57
          57          59          60
          57          60          58
          58          60          61
          58          61          20
          20          61          19
          13          14          59
          59          14          62
          59          62          60
          60          62          63
          60          63          61
          61          63          64
          61          64          19
          19          64          18
          14           1          62
          62           1          15
          62          15          63
          63          15          16
          63          16          64
          64          16          17
          64          17          18
          18          17           2
 </DataArray>
 <DataArray type="Int32" Name="offsets" format="ascii">
           3
           6
           9
          12
          15
          18
          21
          24
          27
          30
          33
          36
          39
          42
          45
          48
          51
          54
          57
          60
          63
          66
          69
          72
          75
          78
          81
          84
          87
          90
          93
          96
          99
         102
         105
         108
         111
         114
         117
         120
         123
         126
         129
         132
         135
         138
         141
         144
         147
         150
         153
         156
         159
         162
         165
         168
         171
         174
         177
         180
         183
         186
         189
         192
         195
         198
         201
         204
         207
         210
         213
         216
         219
         222
         225
         228
         231
         234
         237
         240
         243
         246
         249
         252
         255
         258
         261
         264
         267
         270
         273
         276
         279
         282
         285
         288
 </DataArray>
 <DataArray type="UInt8" Name="types" format="ascii">
           5
           5
           5
           5
           5
           5
           5
           5
           5
           5
           5
           5
           5
           5
           5
           5
           5
           5
           5
           5
           5
           5
           5
           5
           5
           5
           5
           5
           5
           5
           5
           5
           5
           5
           5
           5
           5
           5
           5
           5
           5
           5
           5
           5
           5
           5
           5
           5
           5
           5
           5
           5
           5
           5
           5
           5
           5
           5
           5
           5
           5
           5
           5
           5
           5
           5
           5
           5
           5
           5
           5
           5
           5
           5
           5
           5
           5
           5
           5
           5
           5
           5
           5
           5
           5
           5
           5
           5
           5
           5
           5
           5
           5
           5
           5
           5
 </DataArray>
 </Cells>
 </Piece>
 </UnstructuredGrid>
 </VTKFile>
