 <VTKFile type="UnstructuredGrid" version="0.1"  byte_order="LittleEndian">
 <UnstructuredGrid>
 <Piece NumberOfPoints="1616" NumberOfCells="2912">
 <PointData>
 <DataArray type="Float64" Name="u" format="ascii">
   1.0000000000000000     
   4.4816890703380645     
   7.3890560989306504     
   1.6487212707001282     
   1.4549914146182013     
   1.8682459574322223     
   2.1170000166126752     
   2.2535347872132090     
   2.7182818284590455     
   2.5535894580629268     
   4.4816890703380645     
   4.7707331819676027     
   3.4903429574618414     
   3.7154507379411035     
   3.2788737679386735     
   4.7707331819676027     
   5.4059489251411659     
   3.7154507379411039     
   3.6237159323669421     
   2.4905411096998309     
   2.5535894580629268     
   3.7154507379411044     
   1.0253151205243156     
   1.0512710963757901     
   1.0778841508842707     
   1.1051709180751617     
   1.1331484530662259     
   1.1618342427275639     
   1.1912462166115145     
   1.2214027581591678     
   1.2523227161906674     
   1.2840254166863454     
   1.3165306748660635     
   1.3498588075742850     
   1.3840306459788667     
   1.4190675485911983     
   1.4549914146159608     
   1.4918246976388398     
   1.5295904196607510     
   1.5683121854873350     
   1.6080141974827340     
   1.6487212706968548     
   1.6904588483755849     
   1.7332530178636454     
   1.7771305269100355     
   1.8221188003862425     
   1.8682459574276815     
   1.9155408290090692     
   1.9640329759647233     
   2.0137527074650436     
   2.0647310999607322     
   2.1170000166066321     
   2.1705921271774078     
   2.2255409284864940     
   2.2818807653233981     
   2.3396468519201603     
   2.3988752939613494     
   2.4596031111512908     
   2.5218682603525884     
   2.5857096593103939     
   2.6511672109772699     
   2.7182818284538341     
   2.7870954605607747     
   2.8576511180582331     
   2.9299929005289265     
   3.0041660239418255     
   3.0802168489136021     
   3.1581929096855288     
   3.2381429438339251     
   3.3201169227327285     
   3.4041660827872295     
   3.4903429574584961     
   3.5787014100984926     
   3.6692966676164276     
   3.7621853549973849     
   3.8574255306947567     
   3.9550767229186778     
   4.0551999668431185     
   4.1578578427548116     
   4.2631145151680014     
   4.3710357729293374     
   4.5951435693064582     
   4.7114701825903049     
   4.8307416181095633     
   4.9530324243940198     
   5.0784190371785884     
   5.2069798271779391     
   5.3387951490708305     
   5.4739473917243933     
   5.6125210296898711     
   5.7546026760019737     
   5.9002811363155194     
   6.0496474644097589     
   6.2027950191020071     
   6.3598195225993202     
   6.5208191203279657     
   6.6858944422775073     
   6.8551486658978229     
   7.0286875805883664     
   7.2066196538199945     
   7.2066196538226297     
   7.0286875805935098     
   6.8551486659053475     
   6.6858944422865303     
   6.5208191203368777     
   6.3598195226079772     
   6.2027950191104262     
   6.0496474644190634     
   5.9002811363267531     
   5.7546026760148363     
   5.6125210297019681     
   5.4739473917354093     
   5.3387951490808083     
   5.2069798271869265     
   5.0784190371866282     
   4.9530324244011510     
   4.8307416181158276     
   4.7114701825958223     
   4.5951435693113210     
   4.4816890703423979     
   4.3710357729344240     
   4.2631145151738572     
   4.1578578427614001     
   4.0551999668504006     
   3.9550767229266155     
   3.8574255307033072     
   3.7621853550065190     
   3.6692966676261118     
   3.5787014101086876     
   3.4903429574691001     
   3.4041660827977331     
   3.3201169227430585     
   3.2381429438440827     
   3.1581929096955186     
   3.0802168489234241     
   3.0041660239514822     
   2.9299929005384211     
   2.8576511180675670     
   2.7870954605699501     
   2.7182818284628527     
   2.6511672109861344     
   2.5857096593191056     
   2.5218682603611504     
   2.4596031111597059     
   2.3988752939696179     
   2.3396468519282845     
   2.2818807653313815     
   2.2255409284943384     
   2.1705921271851145     
   2.1170000166141572     
   2.0647310999677884     
   2.0137527074716051     
   1.9640329759708097     
   1.9155408290147007     
   1.8682459574328769     
   1.8221188003910194     
   1.7771305269144118     
   1.7332530178676380     
   1.6904588483792098     
   1.6080141974856155     
   1.5683121854898421     
   1.5295904196631136     
   1.4918246976412701     
   1.4549914146184535     
   1.4190675485937496     
   1.3840306459814711     
   1.3498588075769391     
   1.3165306748687631     
   1.2840254166890634     
   1.2523227161930364     
   1.2214027581611862     
   1.1912462166132258     
   1.1618342427290085     
   1.1331484530674156     
   1.1051709180761076     
   1.0778841508849679     
   1.0512710963762426     
   1.0253151205245354     
   1.4233532759747560     
   1.4002903799874398     
   1.3862746195367184     
   1.3815738283960355     
   1.3862746195364586     
   1.4002903799869066     
   1.4233532759739786     
   1.4549914146174494     
   1.4944946608473570     
   1.5408750779555491     
   1.5928304288573760     
   1.6487212706996939     
   1.7065732668150893     
   1.7641156426934461     
   1.8188635260273727     
   1.9097731212213831     
   1.9412272392268883     
   1.9608537804489532     
   1.9675255658359474     
   1.9608537804493320     
   1.9412272392276348     
   1.9097731212224558     
   1.8682459574331844     
   1.8188635260281132     
   1.7641156426942672     
   1.7065732668160467     
   1.6487212707006151     
   1.5928304288582260     
   1.5408750779562548     
   1.4944946608479899     
   2.0886234879043073     
   2.0887805960872177     
   2.1054904988440715     
   2.1324628266587879     
   2.1668935563415173     
   2.2074575037796280     
   2.3049033570773454     
   2.3616087847429439     
   2.4239045902755065     
   2.4921901879343462     
   2.5667406724543822     
   2.6460635579161629     
   2.7552130431032449     
   2.7550058090282201     
   2.7331411275258701     
   2.6985711563479873     
   2.6556923662284126     
   2.6068917141791568     
   2.4966785085959793     
   2.4367298737974994     
   2.3741044507662177     
   2.3090543827136538     
   2.2419883464514627     
   2.1747787043095808     
   4.4389590792483906     
   4.4240511503881894     
   4.4389590792473328     
   4.4816890703372296     
   4.5464086875857745     
   4.6239531527817697     
   4.7028202320447914     
   4.8166568732468660     
   4.8328877836883208     
   4.8166568732480153     
   4.7707331819684917     
   4.7028202320449575     
   4.6239531527823914     
   4.5464086875859353     
   3.4570648069406054     
   3.4454545002702717     
   3.4570648069398047     
   3.4903429574613312     
   3.5407466460546768     
   3.6011383362722702     
   3.6625600793607207     
   3.7512161446709169     
   3.7638567904326905     
   3.7512161446716674     
   3.7154507379415094     
   3.6625600793602668     
   3.6011383362718887     
   3.5407466460542540     
   5.2724755706129924     
   5.1422976849498969     
   5.0153339027356987     
   4.8915048674734898     
   4.7707331819852614     
   4.6529433600361356     
   4.5380617791530176     
   4.4260166346048688     
   4.3167378945292150     
   4.2101572561595422     
   4.1062081031273703     
   4.0048254638282179     
   3.9059459708122350     
   3.8095078211774815     
   3.6104223366341235     
   3.4903429574630591     
   3.3742573097602828     
   3.2788737679397153     
   3.2166479714948042     
   3.1950784846123410     
   3.2166479714942051     
   3.3618788525559413     
   3.4469852208943714     
   3.5342460672046210     
   3.6237159323562120     
   3.7154507379273527     
   3.8095078211577413     
   3.9059459707862132     
   4.0048254637985732     
   4.1062081030969759     
   4.2101572561283787     
   4.3167378944972601     
   4.4260166345721084     
   4.5380617791227866     
   4.6529433600120269     
   4.9095154164107297     
   5.0784190371784526     
   5.2531335029458806     
   5.4059489251399153     
   5.5105265725508294     
   5.5477272958483406     
   5.5105265725502717     
   3.5342460672135387     
   3.4469852209005594     
   3.3618788525600034     
   3.2788737679400803     
   3.1979180861615220     
   3.1189612072878861     
   3.0419537806996120     
   2.9668476742482759     
   2.8935959441724366     
   2.8221528057562497     
   2.7524736047125327     
   2.6845147892723835     
   2.6182338829639047     
   2.5535894580630258     
   2.6182338829634588     
   2.6845147892715739     
   2.7524736047113407     
   2.8221528057546568     
   2.8935959441704231     
   2.9668476742458214     
   3.0419537806966948     
   3.1189612072847739     
   3.1979180861585013     
   3.2788737679371573     
   3.3618788525571865     
   3.4469852208985183     
   3.5342460672118152     
   3.6237159323666073     
   3.2139824275173230     
   4.3201155505498701     
   5.4040384651606015     
   4.0253780933530248     
   1.8347408222142312     
   2.3565522611262995     
   2.3752300170994296     
   3.1773520101291601     
   2.6643423109175610     
   1.9739400588340432     
   2.9187901277845461     
   2.1553794119384970     
   6.2004515619484399     
   4.6051724396126952     
   1.2381141564317781     
   1.6791315236421331     
   2.8976101986354292     
   4.0353072712013400     
   1.6313670068415054     
   2.2739212050066708     
   3.2401133864050871     
   4.7919898939346588     
   5.2702112976071263     
   3.5577346700366044     
   1.9444927452810765     
   2.1592830574128614     
   3.1091818905483195     
   2.6097463013846407     
   1.2887248925985173     
   1.5308202541576366     
   1.2906127106639715     
   1.8418882973593782     
   5.9784126062618652     
   4.1803257607451130     
   3.9981116128095753     
   4.9684654296230066     
   3.4239441831707826     
   4.2570461904506001     
   1.4860817699203415     
   2.1236164338167565     
   1.9858841810039161     
   2.4284176965500635     
   1.8003892973527458     
   2.5956664004372714     
   3.4463901156430214     
   2.3868201335358457     
   1.4161179429664053     
   1.3599171900079494     
   1.9909815842979994     
   2.9289162554441011     
   2.3210341887078290     
   2.9895621980743350     
   3.7064126870134939     
   2.0391855436584398     
   3.1711961869713843     
   2.1754482607534431     
   5.0535707841573876     
   3.3656808593604128     
   1.6865737856302390     
   2.4364138175361170     
   2.7145765740452452     
   2.1299624230415004     
   1.9810376472448890     
   2.8811902055318983     
   3.3038672802889799     
   4.5191552563302642     
   1.7787730692806885     
   2.1772219265492470     
   4.9326038635760527     
   6.0956575953385421     
   3.0718394683429890     
   4.5772737097570140     
   5.1975365398136857     
   5.6135542203173401     
   3.8003903180089997     
   3.7537437299460619     
   2.9548384212422047     
   2.7860558480405282     
   3.1576562669194548     
   3.9872775255583135     
   5.7384308204155881     
   4.4684162562015048     
   6.6918837709381647     
   4.5429473603807971     
   4.3301015228629449     
   2.9257679274108921     
   1.1326788552920515     
   1.6707191900637905     
   1.3290202969663802     
   2.9820511428795080     
   2.4830409271414080     
   3.3252914609240229     
   2.5362213039597674     
   1.8768554661172876     
   2.7419754519007653     
   2.5193815750308537     
   2.0871219283303555     
   6.3237060882069906     
   4.2485507445797168     
   1.3188081797530502     
   1.6376285130136734     
   1.5651526757684571     
   1.2035382569296404     
   1.2045402025654846     
   1.7897740698488773     
   2.6774655709645003     
   3.9936114995898304     
   5.3861763300404739     
   4.3143776645833860     
   2.2360487733523415     
   2.7716141238377285     
   2.0051505893400070     
   2.2738176097143858     
   3.3335920645577621     
   2.2358725913600592     
   3.0290683180320390     
   2.0306075700259751     
   3.3261162483104663     
   4.0697836014004780     
   5.0591499608827872     
   3.5811114904895094     
   3.3482130274428106     
   4.7494516446075439     
   6.4832520404193206     
   4.8002718038359022     
   1.5120546530619550     
   2.2698460107907463     
   5.8563902143229010     
   3.8936869153445119     
   2.1209996908604722     
   1.5875861427948410     
   1.9077224221767561     
   2.5477643968497672     
   2.8157865645539424     
   3.7846046106641293     
   3.5586406497231264     
   4.2770935822643423     
   3.9310523506188684     
   4.7441786612140309     
   5.7979053676640433     
   4.7346795745716825     
   1.3927627378203509     
   2.0992544937455491     
   3.4116131605404445     
   4.4478571899663226     
   3.0339373741356619     
   3.4761777660066602     
   1.3251135272147310     
   1.7416039513999511     
   4.9897904898372962     
   3.8121846381269355     
   1.7351906821327416     
   2.3065429409247091     
   5.2153109732801957     
   5.9330282775897434     
   1.5713489426226255     
   2.3874568442206066     
   1.9169468559178122     
   2.3080323430103906     
   2.9427062471757992     
   2.6410605598905423     
   1.4347258238126017     
   1.9472390210144652     
   1.2845299760133488     
   2.0355985971244901     
   2.1508160352591714     
   2.0339821703447720     
   1.9228940492173991     
   4.1949172102410763     
   2.7708541501739088     
   1.4941256073101492     
   1.8665531044724759     
   1.3523785223881988     
   2.0016778547834853     
   1.4422681847076013     
   1.3585883990563865     
   2.7475622042053307     
   3.0410020671634510     
   4.1857677762524812     
   3.1178143283606436     
   4.9560009722124558     
   3.4732372731688184     
   1.6830887576075606     
   2.1202165067621768     
   3.0826977851669870     
   2.2771426878302741     
   3.6145491892467763     
   2.3715221269226974     
   2.5729735648820746     
   1.6873661092449681     
   2.0952436404854122     
   1.8395564050692612     
   5.1273923486506074     
   4.1931934872282834     
   2.7699188619699839     
   2.0379818623605042     
   5.6514781934010152     
   4.1795467225853535     
   3.1850211886435638     
   2.4989374331417427     
   3.3843841200767466     
   3.4833160758430179     
   4.5997513183135643     
   4.3858394873822091     
   2.6492795976483285     
   1.3999415912936670     
   3.2466321717032001     
   5.0103836946647267     
   4.8503282765883720     
   3.6865118116229914     
   3.8520869452255195     
   1.2594593064295978     
   6.0286385705371748     
   4.4033596377857158     
   3.4214681206032229     
   4.8425217241101146     
   5.2702634315906742     
   3.3947275290267198     
   1.7812539601700990     
   2.4854562628891421     
   3.2206677145099292     
   4.9895026346274403     
   6.1488057391063435     
   4.0030551340131870     
   1.4873013685241212     
   1.2252864286199594     
   1.8751580853428111     
   3.0838502557942999     
   4.7687508817511848     
   2.0467481212129006     
   2.3525968155988961     
   3.1224620228244198     
   3.7782075212517259     
   1.2640004860154204     
   1.7575947883070380     
   1.5863116841216640     
   1.1419470529091220     
   1.7542953317870609     
   1.1420265671374261     
   6.6275153668301234     
   4.3133035460988172     
   3.3078180806980848     
   2.4243893336095166     
   1.7524517780542159     
   2.6874951126409190     
   5.5093432525994084     
   3.5641770329916524     
   4.9332063168155509     
   3.3179409560920297     
   2.9312073609954088     
   3.4666714991252476     
   2.4913968067666681     
   1.3403101913825062     
   2.4058427068857204     
   2.8539974146106659     
   3.0730903567500447     
   4.3904955295179251     
   2.6412025932979950     
   2.1928864114735980     
   5.1568353424653708     
   3.5006766638608529     
   3.2002596211985455     
   4.6305280975386340     
   2.9995540886932894     
   3.9000173823141568     
   1.2594298376951767     
   1.6012582353143410     
   1.5095190542853800     
   2.0384657726888258     
   3.1189172434867576     
   3.2782576627408764     
   2.2068483290824776     
   1.4299205130376722     
   1.8842910120361647     
   2.6547378725431123     
   1.9943801785435726     
   2.5484775235231116     
   1.8544957279882319     
   2.8833635480301480     
   5.3700437280518649     
   3.7128590024139760     
   5.4628824080662168     
   5.7019984926137184     
   2.9339397495529478     
   4.5164131073220570     
   2.3188172541236671     
   2.7821428598331099     
   2.0533430802879056     
   3.1783643949106613     
   3.0439106442843906     
   2.3893818497628012     
   3.4819347461858405     
   2.2618509814439109     
   3.9213070612505607     
   2.5445733651667330     
   1.9080883799503052     
   2.4310577672037712     
   2.8389312037973995     
   1.3452080637007524     
   1.5752397244174934     
   3.3159910921066977     
   4.3427402152313679     
   2.1427146244786996     
   3.3000909583572793     
   1.9442292265892054     
   2.9927836612189056     
   5.4238939061896021     
   4.4840946246957696     
   2.1368753530661735     
   2.5409175434664188     
   3.2467357604016116     
   2.2680753099453961     
   5.6678106577673191     
   3.9458781706870218     
   1.9381345937953123     
   2.7641716697907777     
   1.3236677764665112     
   2.0429375297325048     
   1.2127238201907977     
   6.9682852355746698     
   4.5120159740735017     
   3.9061528231027269     
   4.5918805310899726     
   3.0555681656667968     
   2.1227409380838331     
   3.1959838487471748     
   4.4615395912568960     
   1.4070442478910004     
   1.9147484357849689     
   2.9088539171323990     
   3.5385501450139509     
   1.8622633892656528     
   2.2141586295793267     
   2.4500582489069305     
   3.7707630762672082     
   4.6288242884080661     
   3.2898192854155841     
   5.2194686132929489     
   3.7103926387044122     
   1.0812961151193994     
   1.6610831946319420     
   2.6474492033848449     
   2.0537666896184001     
   2.9344480149956187     
   2.2319770454514245     
   4.9831318044561179     
   6.3670479841696173     
   2.0476406846308715     
   2.8648885318566650     
   5.2042130548495349     
   3.9645094288841261     
   3.2374650442919557     
   3.8956621945958427     
   5.0165888993516781     
   5.7845299731088478     
   2.8079864568195343     
   2.1563124488963394     
   2.8943790778026788     
   2.5405310688033684     
   5.4119871399882706     
   3.8772075884626944     
   1.6254521793812504     
   2.5184305359309400     
   2.6889660104436759     
   3.8188018413803708     
   5.6091348335583380     
   4.6810948794828722     
   6.1221803265087713     
   4.7740897218121905     
   6.4315435708279045     
   4.4967763900335376     
   3.6432868311404243     
   4.3061010259256429     
   1.6668371339714112     
   2.3561288301526995     
   1.4692585121904327     
   2.0917126070308218     
   6.7209202796551271     
   4.7111944829841574     
   1.8021487511896885     
   2.2923395992522577     
   5.9942724575034516     
   4.5845248632275721     
   3.1852385351120525     
   4.1562129495823470     
   1.3744235541002019     
   3.4235831575488058     
   4.0876755074366971     
   1.1762409313482169     
   1.6522928961731063     
   1.5717630754770524     
   2.2090065790114264     
   2.0818574689388103     
   1.7382777862910010     
   2.8748306886666350     
   2.4030390397513854     
   2.0801763607276591     
   5.8141375766231773     
   4.3497290854020525     
   1.9541475250044753     
   1.7344110648352518     
   1.1907946369055469     
   2.7198571840372701     
   3.1074488979149151     
   3.5917180322072109     
   1.9763939237024628     
   2.0865635884018960     
   1.7738698242215118     
   5.7735377703514086     
   3.7411949109337659     
   1.3586004993737881     
   4.3641154477089712     
   2.7996160193523747     
   5.1803018988518765     
   6.1614712039629724     
   2.8343736324161419     
   1.6853137249235133     
   2.2156970494008923     
   1.6912909965527410     
   1.2786338020407650     
   3.0658740057337885     
   2.7875247246418096     
   3.9608776956007619     
   2.3484689230847717     
   1.9649706882223428     
   4.1496390159794583     
   2.6498648122234503     
   4.0458464241555196     
   6.3313427693624256     
   2.9473899610362055     
   4.1881830949335228     
   3.3007087237528232     
   2.3155285377271557     
   2.8207922088493689     
   3.6041589978825304     
   1.7424712526538604     
   2.4057149919717116     
   1.8315731055535411     
   2.4880048837858162     
   3.3567538071575225     
   2.6062577708809131     
   3.0165909133247810     
   2.2221285951979661     
   3.3019066684549672     
   5.1652723732656742     
   3.0199168238967320     
   2.5606203900841069     
   3.0144152328136440     
   1.2725886687472696     
   5.7924934475009611     
   4.0738220693148062     
   2.9850540260986147     
   4.6805948891346114     
   2.7190298317092911     
   1.3442809137751783     
   1.6742502589377968     
   3.5025512501463392     
   4.1694912276111271     
   1.0999053869313338     
   1.6065058195897621     
   1.1007123481050249     
   1.7214818868330330     
   1.3114907893503078     
   6.8255991390865907     
   4.3811553087650354     
   1.5180675482976156     
   2.3530924031203369     
   4.4756218438852020     
   3.8067149368270865     
   4.9444003173796194     
   4.1229478748174468     
   5.3224671767443867     
   4.1628222286715193     
   3.2181302976699007     
   2.5721857833792621     
   2.0475384160727632     
   2.2093489377973379     
   5.1498667290516664     
   4.3211834817674468     
   6.4245471622763590     
   4.6436492691139613     
   2.6488031462206192     
   2.2647930893885526     
   1.7626176284221688     
   2.7985380091617613     
   3.1627075134523945     
   4.8685952099988441     
   1.5294025401443965     
   1.1587637638651127     
   1.8116788313023622     
   1.1568467646542044     
   3.0049494070252498     
   4.0737299309557473     
   1.3716167169910825     
   3.3242483560445315     
   3.0196607612869206     
   3.3431869929029721     
   4.2103279855501272     
   5.8872595565198846     
   5.3800319099382889     
   3.0900265857559446     
   2.4623891208247017     
   3.1655370137530472     
   6.1612356181836123     
   4.1562773147456076     
   2.0126736850580871     
   1.8466682893952164     
   1.4463871092723268     
   2.2742023807793270     
   1.3328806102593886     
   1.4540383187725570     
   1.9265310560591677     
   4.9437234433500574     
   3.5899432124307227     
   6.2472971954140846     
   4.4200634442838611     
   2.1720353068392133     
   1.3797754542924299     
   1.9867231701475117     
   2.2038948945421462     
   3.4073846313413245     
   4.7087758795324195     
   5.3745125433500487     
   3.4915689917373203     
   1.6237622660075695     
   2.0595292820215398     
   2.2949855987323105     
   3.6017169992020479     
   1.6836207384047199     
   2.6551590322745136     
   3.5686886038494974     
   4.3676102525188050     
   2.0373293781732431     
   2.4852748812650685     
   2.0161135949131492     
   1.2775474448762734     
   6.0596546578551838     
   3.8585912834859832     
   1.5715875805037636     
   2.3090995160787577     
   1.4371940864392057     
   2.0739319349395635     
   5.5913079534019632     
   4.3817724684311958     
   2.9570991952620909     
   2.0936507067400840     
   4.1690159929961315     
   6.5295310740977452     
   4.3744512351188796     
   3.7155255832778620     
   3.1181903756375573     
   3.3759753233983494     
   2.1536708176082264     
   3.3973376771437946     
   1.2417460798032924     
   1.3077241897151282     
   1.5813807945250167     
   3.8344325739591945     
   4.6982879393154100     
   1.6231987309389404     
   2.1899021049969631     
   1.9572852402160574     
   3.0790564914757108     
   1.5607374714664926     
   2.4579380186983020     
   2.8305580031541862     
   2.4751779847061188     
   1.2463248911450624     
   1.5427399746831505     
   1.8163744105259263     
   1.4271294078484196     
   1.9324208488294190     
   1.2352959220128010     
   2.3719320434566038     
   3.7460566039013607     
   4.0861318299928655     
   2.8065116039690028     
   5.6673762755450303     
   3.6179483843752482     
   2.9013391981857075     
   3.8886895040139966     
   2.9535660829976877     
   2.0068296764416282     
   1.5582073644150833     
   2.0314558901332180     
   1.6343201437058774     
   1.2180513883731980     
   1.3366408969111863     
   2.1056665762828644     
   1.4013089118724218     
   2.0334880451148165     
   2.1214421872071352     
   2.4590270499624474     
   3.3843626069762864     
   2.4595339421969693     
   5.2779856165585715     
   5.7050034212639336     
   2.7337447883275932     
   3.2070827793044181     
   5.1356714843220805     
   4.0711773514735805     
   3.4057637553299198     
   4.9522346090390146     
   4.0415722591295511     
   2.5770576826004068     
   4.9237142650058825     
   6.5379457173985376     
   2.7803600709515406     
   2.0996623359738376     
   3.3872850766315161     
   4.3669552986173441     
   6.2596897293946983     
   4.8681560014575345     
   3.4533098638461448     
   4.4882659577341908     
   2.0364013411272253     
   1.7821020248585366     
   2.9207026687716349     
   3.4094611274635955     
   3.5582499537018948     
   2.4485347143538725     
   2.5412573213711909     
   1.7498773062811384     
   1.8156213868856093     
   2.6674658722277282     
   1.4758950483599407     
   2.2037108612249177     
   4.8894021618923276     
   3.7448056056559862     
   2.1493422216661733     
   2.0767132564632513     
   1.4036248295150864     
   1.6177570778088657     
   1.3570206242565548     
   5.9755151809273581     
   4.0282362730302346     
   2.3081488185234966     
   3.4104062450185397     
   1.3629031896836612     
   1.3203204982577574     
   2.0529962279733698     
   2.2780468843892447     
   1.7979978642938912     
   2.7266666964966979     
   3.6790243477077795     
   5.6398997161751590     
   4.8064737680251151     
   2.1009424220963657     
   1.9021467014322364     
   1.4815790037056713     
   1.8894454770919598     
   1.2677139647615265     
   1.1817525626583723     
   1.4767557129563882     
   1.8703182075168034     
   1.9495113865059748     
   2.4926557575257657     
   3.3761783138709891     
   3.9547710675459449     
   1.5357581369723248     
   2.1156036107970926     
   5.8924683962065254     
   4.8712322880604697     
   3.4573616861539467     
   2.5516997540441215     
   4.8331128883328835     
   4.0227668822826415     
   1.9433327649477454     
   2.6010794609380992     
   1.9581593279469680     
   2.2741937915409607     
   5.0544191380540227     
   3.9228775931746886     
   2.8947168126331659     
   3.7219753144934575     
   2.9967101993967011     
   2.2777910665478323     
   2.9548371362270518     
   1.8665746638021383     
   1.3282262966653877     
   1.5344525997233749     
   3.2659867428892873     
   2.0627886479405264     
   2.6672443433109252     
   1.3172673664088774     
   1.9856544949025412     
   1.6223140825850535     
   2.4251258435068008     
   2.8312177925130011     
   4.4865076281080318     
   1.8536506531106449     
   2.5542262602949832     
   3.1579619526022653     
   6.9074548608159558     
   4.6566414880374278     
   2.7297941881801413     
   2.1860807106081639     
   2.3878917182242345     
   2.9473426690454256     
   2.1477875736938210     
   1.4343721215395440     
   2.8396837465355969     
   2.2792299059205834     
   2.6204268002724191     
   2.1000365877254517     
   3.1088064793672578     
   2.5370562402676922     
   2.1998337595268103     
   3.2453665686945645     
   2.8555334322101946     
   2.6214813542934721     
   1.7546585561220909     
   2.2344815271572367     
   3.1977258113032816     
   3.7582059388336573     
   1.8848800004680726     
   2.3653114485318474     
   5.2320678704412220     
   4.4259169525816437     
   2.3728572103132768     
   2.7620468919398959     
   1.8450803299463028     
   1.5103777365081510     
   1.3905298285900127     
   2.0195708798280188     
   1.2148685982921461     
   3.0077441537198912     
   3.6097289289899468     
   3.2640922408709825     
   4.2005982713520682     
   2.8630162211476402     
   4.2469206321774049     
   3.0913977061021942     
   2.1961404651799783     
   1.9586741687807834     
   1.8856789172728305     
   5.3104206180158409     
   6.0512126172082308     
   3.0184960896655628     
   1.9517347365593993     
   1.4596009855550407     
   3.1166047815475038     
   4.2701537542822647     
   1.3563724940742448     
   1.7144882629009079     
   2.6924722208705667     
   4.2703770071737628     
   1.7746426180484711     
   2.3546139010549854     
   1.8628982423688942     
   3.1035367328199177     
   2.3507487714775874     
   3.1720450483196996     
   4.7366408338662227     
   5.0585207787641471     
   5.9770943487147106     
   1.7393828504944155     
   2.6145250846287360     
   1.3869270678525023     
   2.9093830719215887     
   3.0837419767217140     
   3.8744025536160160     
   2.6448279390398159     
   3.0105703127970980     
   3.0175370378461275     
   4.2957953038870915     
   5.5880774706289733     
   4.0677302979172048     
   2.6998675156198457     
   1.9271633920718256     
   5.3874720680311148     
   3.6110770656641451     
   5.7057815330363129     