 <VTKFile type="UnstructuredGrid" version="0.1"  byte_order="LittleEndian">
 <UnstructuredGrid>
 <Piece NumberOfPoints="65" NumberOfCells="16">
 <PointData>
 <DataArray type="Float64" Name="u" format="ascii">
   0.0000000000000000     
   0.0000000000000000     
   0.0000000000000000     
   0.0000000000000000     
   0.0000000000000000     
   0.0000000000000000     
   0.0000000000000000     
   0.0000000000000000     
   0.0000000000000000     
  -1.4183809190492527     
   0.0000000000000000     
  -1.6132218956614390     
   0.0000000000000000     
   0.0000000000000000     
   0.0000000000000000     
   0.0000000000000000     
   0.0000000000000000     
   0.0000000000000000     
   0.0000000000000000     
   0.0000000000000000     
   0.0000000000000000     
   0.0000000000000000     
   0.0000000000000000     
  -1.8303629563135424     
   0.0000000000000000     
  -1.6135114985043877     
   0.0000000000000000     
   0.0000000000000000     
   0.0000000000000000     
   0.0000000000000000     
   0.0000000000000000     
   0.0000000000000000     
   0.0000000000000000     
   0.0000000000000000     
   0.0000000000000000     
   0.0000000000000000     
   0.0000000000000000     
   0.0000000000000000     
   0.0000000000000000     
   0.0000000000000000     
   0.0000000000000000     
   0.0000000000000000     
   0.0000000000000000     
   5.3243244996076244E-002
   0.0000000000000000     
   7.0591313360393884E-002
   5.3981858986454336E-002
   6.5406968035105900E-002
   7.4808620695550249E-002
   6.6338752835288506E-002
   5.4034562838100327E-002
   7.1154707886039559E-002
   0.0000000000000000     
   5.3822450677224687E-002
   0.0000000000000000     
   0.0000000000000000     
   0.0000000000000000     
   0.0000000000000000     
   0.0000000000000000     
   0.0000000000000000     
   0.0000000000000000     
   0.0000000000000000     
   0.0000000000000000     
   0.0000000000000000     
   0.0000000000000000     
 </DataArray>
 <DataArray type="Float64" Name="uexa" format="ascii">
   1.0000000000000000     
   2.1170000166126748     
   2.7182818284590451     
   1.2840254166877414     
   1.0644944589175920     
   1.1331484530662570     
   1.2062302494200716     
   1.2840254166866338     
   1.3668379411724683     
   1.4549914146166290     
   1.5488302986326488     
   1.6487212706987497     
   1.7550546569590459     
   1.8682459574313335     
   1.9887374695818187     
   2.2535347872128706     
   2.3988752939665110     
   2.5535894580625040     
   2.5535894580636653     
   2.3988752939684854     
   2.2535347872151634     
   2.1170000166143885     
   1.9887374695837867     
   1.8682459574335191     
   1.7550546569614152     
   1.6487212707010819     
   1.5488302986349392     
   1.4549914146187062     
   1.3668379411740335     
   1.2062302494210853     
   1.1331484530672196     
   1.0644944589181364     
   1.1331484530669180     
   1.2062302494212929     
   1.2840254166879124     
   1.2062302494208623     
   1.2840254166879606     
   1.3668379411740414     
   1.2840254166873852     
   1.3668379411739091     
   1.4549914146185299     
   1.3668379411732785     
   1.4549914146182124     
   1.5488302986344749     
   1.4549914146175023     
   1.5488302986340290     
   1.6487212707004839     
   1.5488302986332321     
   1.6487212706998937     
   1.7550546569606684     
   1.6487212706992875     
   1.7550546569601204     
   1.8682459574327148     
   1.7550546569595298     
   1.8682459574321091     
   1.9887374695829216     
   1.8682459574315387     
   1.9887374695822524     
   2.1170000166134573     
   1.9887374695817073     
   2.1170000166124736     
   2.2535347872136389     
   2.1170000166122045     
   2.2535347872128266     
   2.3988752939671287     
 </DataArray>
 <DataArray type="Float64" Name="erreur" format="ascii">
  -1.0000000000000000     
  -2.1170000166126748     
  -2.7182818284590451     
  -1.2840254166877414     
  -1.0644944589175920     
  -1.1331484530662570     
  -1.2062302494200716     
  -1.2840254166866338     
  -1.3668379411724683     
  -2.8733723336658814     
  -1.5488302986326488     
  -3.2619431663601888     
  -1.7550546569590459     
  -1.8682459574313335     
  -1.9887374695818187     
  -2.2535347872128706     
  -2.3988752939665110     
  -2.5535894580625040     
  -2.5535894580636653     
  -2.3988752939684854     
  -2.2535347872151634     
  -2.1170000166143885     
  -1.9887374695837867     
  -3.6986089137470612     
  -1.7550546569614152     
  -3.2622327692054696     
  -1.5488302986349392     
  -1.4549914146187062     
  -1.3668379411740335     
  -1.2062302494210853     
  -1.1331484530672196     
  -1.0644944589181364     
  -1.1331484530669180     
  -1.2062302494212929     
  -1.2840254166879124     
  -1.2062302494208623     
  -1.2840254166879606     
  -1.3668379411740414     
  -1.2840254166873852     
  -1.3668379411739091     
  -1.4549914146185299     
  -1.3668379411732785     
  -1.4549914146182124     
  -1.4955870536383986     
  -1.4549914146175023     
  -1.4782389852736351     
  -1.5947394117140297     
  -1.4834233305981261     
  -1.5739126500043434     
  -1.6887159041253799     
  -1.5946867078611873     
  -1.6838999490740809     
  -1.8682459574327148     
  -1.7012322062823051     
  -1.8682459574321091     
  -1.9887374695829216     
  -1.8682459574315387     
  -1.9887374695822524     
  -2.1170000166134573     
  -1.9887374695817073     
  -2.1170000166124736     
  -2.2535347872136389     
  -2.1170000166122045     
  -2.2535347872128266     
  -2.3988752939671287     
 </DataArray>
 </PointData>
 <Points>
 <DataArray type="Float64" Name="Nodes" NumberOfComponents="3" format="ascii">
   0.0000000000000000        0.0000000000000000        0.0000000000000000     
   6.0000000000000000        0.0000000000000000        0.0000000000000000     
   6.0000000000000000        2.0000000000000000        0.0000000000000000     
   0.0000000000000000        2.0000000000000000        0.0000000000000000     
  0.49999999999799027        0.0000000000000000        0.0000000000000000     
  0.99999999999598055        0.0000000000000000        0.0000000000000000     
   1.4999999999939710        0.0000000000000000        0.0000000000000000     
   1.9999999999930991        0.0000000000000000        0.0000000000000000     
   2.4999999999922271        0.0000000000000000        0.0000000000000000     
   2.9999999999913549        0.0000000000000000        0.0000000000000000     
   3.4999999999923328        0.0000000000000000        0.0000000000000000     
   3.9999999999933111        0.0000000000000000        0.0000000000000000     
   4.4999999999942899        0.0000000000000000        0.0000000000000000     
   4.9999999999961933        0.0000000000000000        0.0000000000000000     
   5.4999999999980966        0.0000000000000000        0.0000000000000000     
   6.0000000000000000       0.49999999999879968        0.0000000000000000     
   6.0000000000000000       0.99999999999804323        0.0000000000000000     
   6.0000000000000000        1.4999999999986751        0.0000000000000000     
   5.5000000000023128        2.0000000000000000        0.0000000000000000     
   5.0000000000046274        2.0000000000000000        0.0000000000000000     
   4.5000000000069393        2.0000000000000000        0.0000000000000000     
   4.0000000000064766        2.0000000000000000        0.0000000000000000     
   3.5000000000060139        2.0000000000000000        0.0000000000000000     
   3.0000000000055520        2.0000000000000000        0.0000000000000000     
   2.5000000000050902        2.0000000000000000        0.0000000000000000     
   2.0000000000046270        2.0000000000000000        0.0000000000000000     
   1.5000000000041640        2.0000000000000000        0.0000000000000000     
   1.0000000000027760        2.0000000000000000        0.0000000000000000     
  0.50000000000138822        2.0000000000000000        0.0000000000000000     
   0.0000000000000000        1.5000000000006939        0.0000000000000000     
   0.0000000000000000        1.0000000000027760        0.0000000000000000     
   0.0000000000000000       0.50000000000208167        0.0000000000000000     
  0.49999999999883982       0.50000000000180811        0.0000000000000000     
  0.49999999999968919        1.0000000000023810        0.0000000000000000     
  0.50000000000053868        1.5000000000005260        0.0000000000000000     
  0.99999999999767952       0.50000000000153466        0.0000000000000000     
  0.99999999999937850        1.0000000000019871        0.0000000000000000     
   1.0000000000010769        1.5000000000003570        0.0000000000000000     
   1.4999999999965190       0.50000000000126121        0.0000000000000000     
   1.4999999999990670        1.0000000000015929        0.0000000000000000     
   1.5000000000016160        1.5000000000001901        0.0000000000000000     
   1.9999999999959810       0.50000000000098754        0.0000000000000000     
   1.9999999999988629        1.0000000000011979        0.0000000000000000     
   2.0000000000017448        1.5000000000000211        0.0000000000000000     
   2.4999999999954419       0.50000000000071421        0.0000000000000000     
   2.4999999999986580        1.0000000000008040        0.0000000000000000     
   2.5000000000018741        1.4999999999998530        0.0000000000000000     
   2.9999999999949050       0.50000000000044076        0.0000000000000000     
   2.9999999999984528        1.0000000000004099        0.0000000000000000     
   3.0000000000020020        1.4999999999996840        0.0000000000000000     
   3.4999999999957541       0.50000000000016709        0.0000000000000000     
   3.4999999999991731        1.0000000000000151        0.0000000000000000     
   3.5000000000025930        1.4999999999995159        0.0000000000000000     
   3.9999999999966018       0.49999999999989359        0.0000000000000000     
   3.9999999999998939       0.99999999999962086        0.0000000000000000     
   4.0000000000031859        1.4999999999993470        0.0000000000000000     
   4.4999999999974518       0.49999999999962019        0.0000000000000000     
   4.5000000000006146       0.99999999999922640        0.0000000000000000     
   4.5000000000037774        1.4999999999991800        0.0000000000000000     
   4.9999999999983018       0.49999999999934669        0.0000000000000000     
   5.0000000000004086       0.99999999999883205        0.0000000000000000     
   5.0000000000025171        1.4999999999990110        0.0000000000000000     
   5.4999999999991500       0.49999999999907307        0.0000000000000000     
   5.5000000000002061       0.99999999999843758        0.0000000000000000     
   5.5000000000012594        1.4999999999988429        0.0000000000000000     
 </DataArray>
 </Points>
 <Cells>
 <DataArray type="Int32" Name="connectivity" format="ascii">
          43          45          46
          43          46          25
          25          46          24
          45          47          48
          45          48          46
          46          48          49
          46          49          24
          24          49          23
           9          10          47
          47          10          50
          47          50          48
          48          50          51
          48          51          49
          10          11          50
          50          11          53
          50          53          51
 </DataArray>
 <DataArray type="Int32" Name="offsets" format="ascii">
           3
           6
           9
          12
          15
          18
          21
          24
          27
          30
          33
          36
          39
          42
          45
          48
 </DataArray>
 <DataArray type="UInt8" Name="types" format="ascii">
           5
           5
           5
           5
           5
           5
           5
           5
           5
           5
           5
           5
           5
           5
           5
           5
 </DataArray>
 </Cells>
 </Piece>
 </UnstructuredGrid>
 </VTKFile>
