 <VTKFile type="UnstructuredGrid" version="0.1"  byte_order="LittleEndian">
 <UnstructuredGrid>
 <Piece NumberOfPoints="118" NumberOfCells="198">
 <PointData>
 <DataArray type="Float64" Name="u" format="ascii">
   0.0000000000000000     
   0.0000000000000000     
   1.1920100000000001E-003
   0.0000000000000000     
   0.0000000000000000     
   0.0000000000000000     
   0.0000000000000000     
   0.0000000000000000     
   0.0000000000000000     
   0.0000000000000000     
   0.0000000000000000     
   0.0000000000000000     
   1.3303716049359245E-004
   2.6592641975246986E-004
   3.9866777777677767E-004
   4.9166379061179016E-004
   6.6370679012204723E-004
   7.9600444444337013E-004
   9.2815419753011297E-004
   1.0601560493824706E-003
   1.0597609876546439E-003
   9.2746283950679177E-004
   7.9511555555664593E-004
   6.6271913580390781E-004
   5.3027358024834400E-004
   3.6972549717976508E-004
   2.6523506172915933E-004
   1.3264209876568393E-004
   0.0000000000000000     
   0.0000000000000000     
   0.0000000000000000     
   0.0000000000000000     
   0.0000000000000000     
   2.9629269417929061E-005
   0.0000000000000000     
   0.0000000000000000     
   4.6453251628169673E-004
   1.2226659291969785E-004
   1.6630704315840017E-004
   1.6152525807124987E-004
   6.8244930749791907E-004
   1.7108007158907378E-005
   1.8643377023374669E-004
   8.7884328480342209E-004
   1.3947828557558546E-004
   4.8789059250409163E-004
   2.4681337966673422E-004
   1.5827983696972469E-004
   3.9060177350229719E-005
   6.7708750814795323E-004
   3.1780125451625729E-004
   3.0515697164591054E-004
   7.4032468903299149E-005
   4.6421034775607315E-005
   3.4364035970851421E-004
   5.8042333063851130E-004
   3.0466748862604322E-005
   6.6621010132469015E-004
   8.1811452545935736E-005
   8.2569473866307198E-005
   1.7653438382640415E-005
   7.9541140310053428E-004
   4.4845050263736385E-005
   7.8523182144976775E-004
   4.7906553366807906E-004
   3.9298262348473324E-004
   2.8522792773968839E-004
   1.3443403990373115E-004
   6.6112027696762547E-005
   2.0080459148393153E-004
   3.9535871105496594E-004
   2.8131620496299866E-004
   1.7510889333498237E-004
   3.7437680458284148E-004
   7.5758092225250157E-004
   2.2031753996203357E-004
   1.0833415018798287E-004
   1.4158811685258560E-004
   3.4060515130410543E-004
   4.2935625236457698E-004
   5.5807865310759084E-004
   3.2162987489485560E-004
   4.2275410641862056E-004
   2.2492762628637114E-004
   1.6160609247862538E-004
   3.4919621384307418E-004
   2.0481431958987835E-004
   8.6146532068040896E-005
   4.0138045936867793E-004
   2.4665455162727865E-004
   6.0333643523798671E-004
   1.6111790759808190E-004
   7.7690743424792291E-005
   2.3696972188475254E-004
   1.3732103236593275E-004
   5.7236374596142544E-004
   2.4430753613184170E-004
   5.1973239690035044E-004
   7.7498126428973324E-005
   3.9514961390479428E-005
   5.8842212655832691E-005
   7.9045799469103480E-005
   2.5818157211495872E-004
   2.7490347073668765E-004
   3.9482343988728392E-004
   7.9931991101903554E-005
   5.4934840200234873E-005
   1.6455367413426833E-004
   3.0434646978593280E-004
   8.1517845006156598E-005
   6.4726350823379480E-006
   7.2617943571880731E-005
   1.0156470177888840E-004
   5.3248241064662958E-004
   4.5802055444804261E-004
   9.1184826603471296E-004
   6.8111197903583697E-004
   1.0195487383145505E-003
 </DataArray>
 <DataArray type="Float64" Name="uexa" format="ascii">
   0.0000000000000000     
   0.0000000000000000     
   1.1920100000000001E-003
   0.0000000000000000     
   0.0000000000000000     
   0.0000000000000000     
   0.0000000000000000     
   0.0000000000000000     
   0.0000000000000000     
   0.0000000000000000     
   0.0000000000000000     
   0.0000000000000000     
   1.3303716049359248E-004
   2.6592641975246986E-004
   3.9866777777677767E-004
   5.3126123456648570E-004
   6.6370679012204723E-004
   7.9600444444337013E-004
   9.2815419753011308E-004
   1.0601560493824706E-003
   1.0597609876546439E-003
   9.2746283950679177E-004
   7.9511555555664593E-004
   6.6271913580390781E-004
   5.3027358024834400E-004
   3.9777888888998088E-004
   2.6523506172915933E-004
   1.3264209876568393E-004
   0.0000000000000000     
   0.0000000000000000     
   0.0000000000000000     
   0.0000000000000000     
   0.0000000000000000     
   0.0000000000000000     
   0.0000000000000000     
   0.0000000000000000     
   4.6663014327053215E-004
   1.2111116432782313E-004
   1.6799144506770463E-004
   1.6297221660009178E-004
   6.8423618589366424E-004
   1.6066696038900492E-005
   1.8755219423952779E-004
   8.7982676855544650E-004
   1.4023004709750402E-004
   4.9027225029633372E-004
   2.4780420600882460E-004
   1.5725545508669939E-004
   3.8324714931415753E-005
   6.7888358380735307E-004
   3.2140281239429613E-004
   3.0686433031628014E-004
   7.4570915841235666E-005
   4.4919183181090706E-005
   3.4973921655081044E-004
   5.8314933585693431E-004
   2.9441186899435762E-005
   6.6930919426245604E-004
   8.2651344677443453E-005
   8.3215512531980651E-005
   1.5772926086376633E-005
   7.9652057318267352E-004
   4.2165510218792488E-005
   7.8592935348337310E-004
   4.8131045087355446E-004
   3.9658965646592164E-004
   2.8735886798816185E-004
   1.3450701952537363E-004
   6.7148033040429877E-005
   2.0170789654388766E-004
   3.9797475278696150E-004
   2.8240987529470614E-004
   1.7492924805232398E-004
   3.7627222712864232E-004
   7.5846430392299379E-004
   2.2211513270809790E-004
   1.0556148327042577E-004
   1.4043576089677168E-004
   3.4272365435825895E-004
   4.3730447293445772E-004
   5.6042138977389347E-004
   3.2443483713978676E-004
   4.2896909320959214E-004
   2.2542793097110044E-004
   1.6161804878379142E-004
   3.5456262550389336E-004
   2.0484355012000068E-004
   8.2209928825663909E-005
   4.0516798830790292E-004
   2.4996276858928239E-004
   6.0508388280087078E-004
   1.6323961366417793E-004
   7.7245852170973255E-005
   2.3853071732335545E-004
   1.3873112322875103E-004
   5.7360997966108055E-004
   2.4734590445418738E-004
   5.2933691124038473E-004
   7.5881645380544932E-005
   3.2215353340617970E-005
   5.1702532913627717E-005
   7.8735003973522301E-005
   2.6422812771644384E-004
   2.7860502240655824E-004
   4.0512803892140835E-004
   8.1009192031718675E-005
   5.5586030850324187E-005
   1.6716399221477745E-004
   3.0714698759495276E-004
   8.1710702472348820E-005
   6.1367608030015048E-006
   7.3052153080493625E-005
   9.9917147885592009E-005
   5.3654887786147619E-004
   4.6232683180038908E-004
   9.1209678772748214E-004
   6.8197714520263080E-004
   1.0198108163598524E-003
 </DataArray>
 <DataArray type="Float64" Name="erreur" format="ascii">
   0.0000000000000000     
   0.0000000000000000     
   0.0000000000000000     
   0.0000000000000000     
   0.0000000000000000     
   0.0000000000000000     
   0.0000000000000000     
   0.0000000000000000     
   0.0000000000000000     
   0.0000000000000000     
   0.0000000000000000     
   0.0000000000000000     
  -2.7105054312137611E-020
   0.0000000000000000     
   0.0000000000000000     
  -3.9597443954695537E-005
   0.0000000000000000     
   0.0000000000000000     
  -1.0842021724855044E-019
   0.0000000000000000     
   0.0000000000000000     
   0.0000000000000000     
   0.0000000000000000     
   0.0000000000000000     
   0.0000000000000000     
  -2.8053391710215802E-005
   0.0000000000000000     
   0.0000000000000000     
   0.0000000000000000     
   0.0000000000000000     
   0.0000000000000000     
   0.0000000000000000     
   0.0000000000000000     
   2.9629269417929061E-005
   0.0000000000000000     
   0.0000000000000000     
  -2.0976269888354202E-006
   1.1554285918747166E-006
  -1.6844019093044545E-006
  -1.4469585288419103E-006
  -1.7868783957451784E-006
   1.0413111200068857E-006
  -1.1184240057810998E-006
  -9.8348375202441437E-007
  -7.5176152191855621E-007
  -2.3816577922420928E-006
  -9.9082634209037837E-007
   1.0243818830253063E-006
   7.3546241881396630E-007
  -1.7960756593998414E-006
  -3.6015578780388443E-006
  -1.7073586703695979E-006
  -5.3844693793651702E-007
   1.5018515945166091E-006
  -6.0988568422962338E-006
  -2.7260052184230115E-006
   1.0255619631685597E-006
  -3.0990929377658870E-006
  -8.3989213150771635E-007
  -6.4603866567345325E-007
   1.8805122962637827E-006
  -1.1091700821392421E-006
   2.6795400449438966E-006
  -6.9753203360534664E-007
  -2.2449172054754031E-006
  -3.6070329811883992E-006
  -2.1309402484734623E-006
  -7.2979621642480907E-008
  -1.0360053436673302E-006
  -9.0330505995612500E-007
  -2.6160417319955618E-006
  -1.0936703317074845E-006
   1.7964528265838821E-007
  -1.8954225458008337E-006
  -8.8338167049221983E-007
  -1.7975927460643323E-006
   2.7726669175571019E-006
   1.1523559558139290E-006
  -2.1185030541535184E-006
  -7.9482205698807457E-006
  -2.3427366663026240E-006
  -2.8049622449311646E-006
  -6.2149867909715726E-006
  -5.0030468472930865E-007
  -1.1956305166033968E-008
  -5.3664116608191778E-006
  -2.9230530122331113E-008
   3.9366032423769875E-006
  -3.7875289392249895E-006
  -3.3082169620037450E-006
  -1.7474475628840745E-006
  -2.1217060660960274E-006
   4.4489125381903523E-007
  -1.5609954386029169E-006
  -1.4100908628182749E-006
  -1.2462336996551084E-006
  -3.0383683223456797E-006
  -9.6045143400342930E-006
   1.6164810484283924E-006
   7.2996080498614573E-006
   7.1396797422049744E-006
   3.1079549558117971E-007
  -6.0465556014851238E-006
  -3.7015516698705900E-006
  -1.0304599034124430E-005
  -1.0772009298151209E-006
  -6.5119065008931409E-007
  -2.6103180805091199E-006
  -2.8005178090199597E-006
  -1.9285746619222138E-007
   3.3587427933644319E-007
  -4.3420950861289460E-007
   1.6475538932963883E-006
  -4.0664672148466160E-006
  -4.3062773523464752E-006
  -2.4852169276917257E-007
  -8.6516616679382496E-007
  -2.6207804530199719E-007
 </DataArray>
 </PointData>
 <Points>
 <DataArray type="Float64" Name="Nodes" NumberOfComponents="3" format="ascii">
   0.0000000000000000        0.0000000000000000        0.0000000000000000     
   1.0000000000000000E-002   0.0000000000000000        0.0000000000000000     
   1.0000000000000000E-002   1.0000000000000000E-002   0.0000000000000000     
   0.0000000000000000        1.0000000000000000E-002   0.0000000000000000     
   1.1111111111091500E-003   0.0000000000000000        0.0000000000000000     
   2.2222222222170640E-003   0.0000000000000000        0.0000000000000000     
   3.3333333333249570E-003   0.0000000000000000        0.0000000000000000     
   4.4444444444325763E-003   0.0000000000000000        0.0000000000000000     
   5.5555555555437241E-003   0.0000000000000000        0.0000000000000000     
   6.6666666666576396E-003   0.0000000000000000        0.0000000000000000     
   7.7777777777714588E-003   0.0000000000000000        0.0000000000000000     
   8.8888888888868211E-003   0.0000000000000000        0.0000000000000000     
   1.0000000000000000E-002   1.1111111111091500E-003   0.0000000000000000     
   1.0000000000000000E-002   2.2222222222170640E-003   0.0000000000000000     
   1.0000000000000000E-002   3.3333333333249570E-003   0.0000000000000000     
   1.0000000000000000E-002   4.4444444444325763E-003   0.0000000000000000     
   1.0000000000000000E-002   5.5555555555437241E-003   0.0000000000000000     
   1.0000000000000000E-002   6.6666666666576396E-003   0.0000000000000000     
   1.0000000000000000E-002   7.7777777777714588E-003   0.0000000000000000     
   1.0000000000000000E-002   8.8888888888868211E-003   0.0000000000000000     
   8.8888888888916003E-003   1.0000000000000000E-002   0.0000000000000000     
   7.7777777777829748E-003   1.0000000000000000E-002   0.0000000000000000     
   6.6666666666758186E-003   1.0000000000000000E-002   0.0000000000000000     
   5.5555555555676277E-003   1.0000000000000000E-002   0.0000000000000000     
   4.4444444444564427E-003   1.0000000000000000E-002   0.0000000000000000     
   3.3333333333424890E-003   1.0000000000000000E-002   0.0000000000000000     
   2.2222222222286281E-003   1.0000000000000000E-002   0.0000000000000000     
   1.1111111111132210E-003   1.0000000000000000E-002   0.0000000000000000     
   0.0000000000000000        8.8888888888916003E-003   0.0000000000000000     
   0.0000000000000000        7.7777777777829748E-003   0.0000000000000000     
   0.0000000000000000        6.6666666666758186E-003   0.0000000000000000     
   0.0000000000000000        5.5555555555676277E-003   0.0000000000000000     
   0.0000000000000000        4.4444444444564427E-003   0.0000000000000000     
   0.0000000000000000        3.3333333333424890E-003   0.0000000000000000     
   0.0000000000000000        2.2222222222286281E-003   0.0000000000000000     
   0.0000000000000000        1.1111111111132210E-003   0.0000000000000000     
   6.2910664836739192E-003   6.2068717417811106E-003   0.0000000000000000     
   3.3051915540146470E-003   3.0599234747169090E-003   0.0000000000000000     
   7.7081881015585631E-003   1.8201506384937210E-003   0.0000000000000000     
   1.9791836054055718E-003   6.8879152777473534E-003   0.0000000000000000     
   8.1273101896577101E-003   7.0501809176482392E-003   0.0000000000000000     
   1.5570815025573029E-003   8.6046576088794264E-004   0.0000000000000000     
   8.9694621638111791E-003   1.7466410478137880E-003   0.0000000000000000     
   8.2554390189937630E-003   8.9334235485018475E-003   0.0000000000000000     
   5.2388358719413731E-003   2.2350642699037041E-003   0.0000000000000000     
   5.0446660393913979E-003   8.1387904342604765E-003   0.0000000000000000     
   4.6908856115861876E-003   4.4154209254430674E-003   0.0000000000000000     
   2.7034908229364562E-003   4.8612975669247776E-003   0.0000000000000000     
   3.5884391957776850E-003   8.9093376815887288E-004   0.0000000000000000     
   7.2895377181966450E-003   7.8008021553165087E-003   0.0000000000000000     
   6.8921151373038661E-003   3.8981842572075932E-003   0.0000000000000000     
   3.9681773081480156E-003   6.4694672578740247E-003   0.0000000000000000     
   7.1763213583966546E-003   8.6735020688852977E-004   0.0000000000000000     
   7.5050083330393895E-004   5.0008177298902032E-003   0.0000000000000000     
   3.4506147945365679E-003   8.4871784038460726E-003   0.0000000000000000     
   7.2030763647348006E-003   6.7776080162638428E-003   0.0000000000000000     
   2.6160839744199149E-003   9.3867589691818223E-004   0.0000000000000000     
   8.9832271914890988E-003   6.2376424938764786E-003   0.0000000000000000     
   9.5502103726857236E-004   7.2393525824775810E-003   0.0000000000000000     
   8.2874841845609216E-003   8.3826760315313222E-004   0.0000000000000000     
   8.2965627706242499E-004   1.5857596223422790E-003   0.0000000000000000     
   9.0965234454297422E-003   7.3349122073625740E-003   0.0000000000000000     
   1.8885492115704461E-003   1.8628986962791270E-003   0.0000000000000000     
   8.3390722250470169E-003   7.8959890225062598E-003   0.0000000000000000     
   5.5925643667198866E-003   7.2045243529023006E-003   0.0000000000000000     
   6.6464352249595692E-003   4.9904271930448019E-003   0.0000000000000000     
   5.7831796009303726E-003   4.1533478582483118E-003   0.0000000000000000     
   4.2250875707023610E-003   2.6583462977325069E-003   0.0000000000000000     
   5.3667724566788168E-003   1.0441293168465609E-003   0.0000000000000000     
   5.0144697617937606E-003   3.3605479484816372E-003   0.0000000000000000     
   4.5668629050175588E-003   7.2941347836859172E-003   0.0000000000000000     
   4.3322048358634506E-003   5.4511566002678168E-003   0.0000000000000000     
   3.9801213467697896E-003   3.6717330269195468E-003   0.0000000000000000     
   5.0055201833999353E-003   6.2892957692340101E-003   0.0000000000000000     
   7.0565799048235046E-003   9.0080586017338288E-003   0.0000000000000000     
   6.0554338039005180E-003   3.0644752771302520E-003   0.0000000000000000     
   2.1225681501996240E-003   4.1545054801772029E-003   0.0000000000000000     
   2.9950054632572921E-003   3.9171221339499608E-003   0.0000000000000000     
   5.4582153143640554E-003   5.2510866813496818E-003   0.0000000000000000     
   8.4546494222088962E-003   4.3257339737561764E-003   0.0000000000000000     
   6.4988562597939397E-003   7.2200104340586846E-003   0.0000000000000000     
   3.6551077732680411E-003   7.4289403668633541E-003   0.0000000000000000     
   7.7601789043586014E-003   4.6231731429240263E-003   0.0000000000000000     
   3.3344546965686749E-003   5.6529134118780671E-003   0.0000000000000000     
   2.3127331097419490E-003   5.8428015235520558E-003   0.0000000000000000     
   7.9686961946829199E-003   3.7197186687732602E-003   0.0000000000000000     
   3.6726937982415300E-003   4.6616072741906857E-003   0.0000000000000000     
   2.2202077896427089E-003   3.0915906675238062E-003   0.0000000000000000     
   4.2065260397610906E-003   8.0647267313731577E-003   0.0000000000000000     
   2.7166454157429290E-003   7.7007536492053798E-003   0.0000000000000000     
   6.1455331265323444E-003   8.2473499623743150E-003   0.0000000000000000     
   1.5075875076732640E-003   9.0665942526840324E-003   0.0000000000000000     
   4.3439874109051447E-003   1.4840286288566730E-003   0.0000000000000000     
   2.9943836515383100E-003   6.6637985784381328E-003   0.0000000000000000     
   6.4023730401868064E-003   1.8092909395299259E-003   0.0000000000000000     
   5.2786282072540512E-003   9.1049645333263936E-003   0.0000000000000000     
   7.2314051657611528E-003   2.8578902814230651E-003   0.0000000000000000     
   8.8978641449425772E-003   4.9772773113326363E-003   0.0000000000000000     
   3.1696495303666552E-003   1.9980567790218811E-003   0.0000000000000000     
   1.0049478774850670E-003   2.6754214934989720E-003   0.0000000000000000     
   1.0912740021904971E-003   3.9567244238687396E-003   0.0000000000000000     
   1.0928381530700721E-003   6.0230953776014154E-003   0.0000000000000000     
   2.4948177848768661E-003   8.8688993907019547E-003   0.0000000000000000     
   8.3541543731672496E-003   2.7868647745665611E-003   0.0000000000000000     
   8.9912011087039008E-003   3.7675890848981610E-003   0.0000000000000000     
   8.0966355802845555E-004   8.3739288053623524E-003   0.0000000000000000     
   6.2335378120676743E-003   7.4415409160599559E-004   0.0000000000000000     
   1.7438198165957259E-003   8.0229073297534044E-003   0.0000000000000000     
   9.2629635311009401E-003   2.7713300935034422E-003   0.0000000000000000     
   9.2291670525130320E-003   7.3920395285508869E-004   0.0000000000000000     
   7.1285034645003132E-004   7.1773986529605899E-004   0.0000000000000000     
   6.5686936402203910E-004   9.3120893065821841E-003   0.0000000000000000     
   1.6789008446562591E-003   4.9732070201323874E-003   0.0000000000000000     
   7.7013120152912362E-003   5.8302744704318843E-003   0.0000000000000000     
   4.3153786993425031E-003   8.9745896932863865E-003   0.0000000000000000     
   9.1594833425024582E-003   8.3458054276269941E-003   0.0000000000000000     
   6.1661913726287270E-003   9.2690570945140067E-003   0.0000000000000000     
   9.2607622513168741E-003   9.2336235756835840E-003   0.0000000000000000     
 </DataArray>
 </Points>
 <Cells>
 <DataArray type="Int32" Name="connectivity" format="ascii">
          41           4           5
          42          12          13
          32          53          31
          55          40          49
          57          16          17
          62          41          56
          40          63          49
          63          43          49
          11          59          10
          35          60          34
          48           6           7
          62          60          41
          56           6          48
          58          29          30
          61          17          18
          17          61          57
          61          40          57
          40          61          63
          38          59          42
          59          38          52
          56           5           6
          41           5          56
          10          52           9
          10          59          52
          66          50          65
          46          69          66
          44          69          67
          45          70          64
          72          37          67
          73          36          64
          73          51          71
          74          49          43
          75          50          66
          77          37          72
          77          47          76
          36          78          65
          46          78          71
          80          36          55
          49          80          55
          36          80          64
          81          51          70
          51          83          71
          84          47          83
          86          46          71
          46          86          72
          45          88          70
          54          89          81
          90          45          64
          92          44          67
          44          92          68
          51          93          83
          93          51          81
          94          44          68
          50          96          85
          97          16          57
          56          98          62
          34          99          33
         100          32          33
          53         101          31
         103          38          42
          15         104          14
         106           8           9
          52         106           9
           8         106          68
          39         107          58
         107          39          89
         108          13          14
          13         108          42
         109          11           1
          12         109           1
           4         110           0
         110          35           0
         111          27           3
          28         111           3
          27         111          91
          47         112          76
         112          47          84
         104         108          14
         108         103          42
          87          98          37
          87          62          98
          74          21          22
          43          21          74
          90          80          49
          64          80          90
          73          70          51
          64          70          73
          82          65          50
          66          78          46
          66          65          78
          75          69          44
          66          69          75
          72          69          46
          67          69          72
          94         106          52
          94          68         106
          74          90          49
          81          88          54
          81          70          88
          73          78          36
          73          71          78
          86          83          47
          71          83          86
          77          86          47
          77          72          86
          75          96          50
          77          87          37
          77          76          87
          85          82          50
          79          82          85
          93          89          39
          81          89          93
          84          93          39
          84          83          93
         103          96          38
          85          96         103
         105         111          28
         105          91         111
         105          28          29
         105          29          58
         113          40          55
          40         113          57
          45          90          95
          97          15          16
          97         104          15
          97          79         104
          24          95          23
          11         109          59
         109          42          59
          42         109          12
         110           4          41
          60         110          41
         110          60          35
          30          31         101
          58          30         101
          99          60          62
          60          99          34
          62          87          99
          54         102          89
          89         102         107
          27          91          26
          26          91         102
          37          98          67
          48          98          56
          92          98          48
          67          98          92
         101          39          58
          39         101          84
         112         101          53
          84         101         112
           7           8          68
           7          92          48
          68          92           7
          36         113          55
          36          65         113
         113          65          82
          38          94          52
          38          96          94
          75          44          94
          75          94          96
         100          53          32
         100         112          53
         100          76         112
         114          95          24
          45         114          88
          45          95         114
          19         115          18
         115          61          18
          63          61         115
          63         115          43
          25          26         102
          54          25         102
         100          87          76
          99          87         100
         100          33          99
         107         105          58
         105         107          91
         102          91         107
          85         104          79
         103         104          85
         104         103         108
          97          82          79
          82          97         113
         113          97          57
          22         116          74
          90         116          95
         116          90          74
          23         116          22
          23          95         116
         114          24          25
          54         114          25
          54          88         114
          43          20          21
         117          19           2
          20         117           2
          19         117         115
          43         117          20
          43         115         117
 </DataArray>
 <DataArray type="Int32" Name="offsets" format="ascii">
           3
           6
           9
          12
          15
          18
          21
          24
          27
          30
          33
          36
          39
          42
          45
          48
          51
          54
          57
          60
          63
          66
          69
          72
          75
          78
          81
          84
          87
          90
          93
          96
          99
         102
         105
         108
         111
         114
         117
         120
         123
         126
         129
         132
         135
         138
         141
         144
         147
         150
         153
         156
         159
         162
         165
         168
         171
         174
         177
         180
         183
         186
         189
         192
         195
         198
         201
         204
         207
         210
         213
         216
         219
         222
         225
         228
         231
         234
         237
         240
         243
         246
         249
         252
         255
         258
         261
         264
         267
         270
         273
         276
         279
         282
         285
         288
         291
         294
         297
         300
         303
         306
         309
         312
         315
         318
         321
         324
         327
         330
         333
         336
         339
         342
         345
         348
         351
         354
         357
         360
         363
         366
         369
         372
         375
         378
         381
         384
         387
         390
         393
         396
         399
         402
         405
         408
         411
         414
         417
         420
         423
         426
         429
         432
         435
         438
         441
         444
         447
         450
         453
         456
         459
         462
         465
         468
         471
         474
         477
         480
         483
         486
         489
         492
         495
         498
         501
         504
         507
         510
         513
         516
         519
         522
         525
         528
         531
         534
         537
         540
         543
         546
         549
         552
         555
         558
         561
         564
         567
         570
         573
         576
         579
         582
         585
         588
         591
         594
 </DataArray>
 <DataArray type="UInt8" Name="types" format="ascii">
           5
           5
           5
           5
           5
           5
           5
           5
           5
           5
           5
           5
           5
           5
           5
           5
           5
           5
           5
           5
           5
           5
           5
           5
           5
           5
           5
           5
           5
           5
           5
           5
           5
           5
           5
           5
           5
           5
           5